# vtk DataFile Version 3.0
Pollution grid
ASCII
DATASET STRUCTURED_POINTS
DIMENSIONS 100 100 1
ORIGIN 0 0 0
SPACING 1 1 1
POINT_DATA 10000
SCALARS pollution float 1
LOOKUP_TABLE default
9.099862e+101
-6.588032e+101
5.556407e+101
-5.336519e+101
3.999249e+101
-3.404715e+101
2.422941e+101
-1.825063e+101
1.221410e+101
-8.222143e+100
5.067810e+100
-2.874157e+100
8.779255e+99
2.209236e+100
-1.025182e+101
3.472153e+101
-1.097382e+102
3.330491e+102
-9.751915e+102
2.753052e+103
-7.491890e+103
1.963441e+104
-4.953785e+104
1.202450e+105
-2.807183e+105
6.300158e+105
-1.358936e+106
2.816264e+106
-5.606442e+106
1.071862e+107
-1.967694e+107
3.467903e+107
-5.866918e+107
9.526380e+107
-1.484480e+108
2.219753e+108
-3.184798e+108
4.384021e+108
-5.789613e+108
7.334825e+108
-8.914057e+108
1.039187e+109
-1.162083e+109
1.246530e+109
-1.282605e+109
1.265944e+109
-1.198615e+109
1.088694e+109
-9.486659e+108
7.931007e+108
-6.361807e+108
4.896695e+108
-3.616868e+108
2.563946e+108
-1.744510e+108
1.139385e+108
-7.144063e+107
4.300749e+107
-2.486071e+107
1.380067e+107
-7.357833e+106
3.767967e+106
-1.853593e+106
8.760169e+105
-3.977760e+105
1.735509e+105
-7.276243e+104
2.931605e+104
-1.135120e+104
4.224080e+103
-1.510725e+103
5.192863e+102
-1.715537e+102
5.447344e+101
-1.662864e+101
4.884324e+100
-1.384900e+100
3.826887e+99
-1.044149e+99
2.423457e+98
1.082405e+98
-5.070323e+98
1.248389e+99
-2.707622e+99
5.495306e+99
-1.059358e+100
1.948889e+100
-3.427022e+100
5.763141e+100
-9.269940e+100
1.426181e+101
-2.098635e+101
2.953544e+101
-3.975333e+101
5.116925e+101
-6.298475e+101
7.413824e+101
-8.344951e+101
8.982129e+101
-9.245131e+101
-3.407040e+102
2.463725e+102
-2.078124e+102
1.998908e+102
-1.498679e+102
1.277631e+102
-9.104814e+101
6.867885e+101
-4.605416e+101
3.105344e+101
-1.917328e+101
1.085525e+101
-3.181707e+100
-8.883113e+100
4.041751e+101
-1.360345e+102
4.277838e+102
-1.292125e+103
3.765967e+103
-1.058424e+104
2.867898e+104
-7.485041e+104
1.881026e+105
-4.548712e+105
1.058126e+106
-2.366723e+106
5.088705e+106
-1.051423e+107
2.087226e+107
-3.979978e+107
7.288520e+107
-1.281646e+108
2.163758e+108
-3.506721e+108
5.455048e+108
-8.144318e+108
1.166896e+109
-1.604340e+109
2.116506e+109
-2.679032e+109
3.253519e+109
-3.790815e+109
4.237478e+109
-4.544384e+109
4.675597e+109
-4.615311e+109
4.370978e+109
-3.971796e+109
3.462958e+109
-2.897248e+109
2.326119e+109
-1.792338e+109
1.325522e+109
-9.409636e+108
6.412399e+108
-4.195413e+108
2.635614e+108
-1.589971e+108
9.211810e+107
-5.126216e+107
2.740265e+107
-1.407272e+107
6.943821e+106
-3.292275e+106
1.500068e+106
-6.568700e+105
2.764616e+105
-1.118422e+105
4.349269e+104
-1.625868e+104
5.842873e+103
-2.018592e+103
6.704387e+102
-2.140808e+102
6.573353e+101
-1.942273e+101
5.537046e+100
-1.534286e+100
4.158803e+99
-9.288734e+98
-4.605025e+98
2.003955e+99
-4.851885e+99
1.044036e+100
-2.108613e+100
4.049924e+100
-7.427463e+100
1.302486e+101
-2.184930e+101
3.506572e+101
-5.384033e+101
7.908507e+101
-1.111272e+102
1.493702e+102
-1.920461e+102
2.361727e+102
-2.777957e+102
3.125265e+102
-3.362887e+102
3.461034e+102
8.312297e+102
-5.999975e+102
5.061594e+102
-4.880066e+102
3.661315e+102
-3.127862e+102
2.233771e+102
-1.688624e+102
1.135787e+102
-7.677620e+101
4.752636e+101
-2.682928e+101
7.330666e+100
2.408238e+101
-1.065604e+102
3.553608e+102
-1.109166e+103
3.326487e+103
-9.628237e+103
2.687897e+104
-7.235915e+104
1.876758e+105
-4.688161e+105
1.127216e+106
-2.607863e+106
5.802907e+106
-1.241588e+107
2.553541e+107
-5.047214e+107
9.585210e+107
-1.748718e+108
3.064276e+108
-5.156635e+108
8.332491e+108
-1.292720e+109
1.925346e+109
-2.752635e+109
3.777369e+109
-4.975103e+109
6.288721e+109
-7.628714e+109
8.880869e+109
-9.921239e+109
1.063603e+110
-1.094203e+110
1.080260e+110
-1.023487e+110
9.306300e+109
-8.121460e+109
6.802672e+109
-5.469449e+109
4.221439e+109
-3.128009e+109
2.225393e+109
-1.520269e+109
9.973664e+108
-6.284301e+108
3.803434e+108
-2.211367e+108
1.235269e+108
-6.630200e+107
3.419834e+107
-1.695288e+107
8.077684e+106
-3.699797e+106
1.629132e+106
-6.896962e+105
2.807470e+105
-1.098895e+105
4.136221e+104
-1.497187e+104
5.211785e+103
-1.744801e+103
5.617895e+102
-1.739940e+102
5.186414e+101
-1.490658e+101
4.150715e+100
-1.117523e+100
2.381105e+99
1.317970e+99
-5.283395e+99
1.251211e+100
-2.662669e+100
5.339573e+100
-1.019939e+101
1.861811e+101
-3.251304e+101
5.433576e+101
-8.690639e+101
1.330292e+102
-1.948721e+102
2.731716e+102
-3.664216e+102
4.702902e+102
-5.775290e+102
6.785670e+102
-7.628091e+102
8.204300e+102
-8.442548e+102
-1.861768e+103
1.341158e+103
-1.131552e+103
1.093794e+103
-8.212251e+102
7.031871e+102
-5.033510e+102
3.814066e+102
-2.573861e+102
1.744564e+102
-1.082857e+102
6.090404e+101
-1.522016e+101
-6.027863e+101
2.593556e+102
-8.565238e+102
2.652165e+103
-7.893734e+103
2.267854e+104
-6.285597e+104
1.680303e+105
-4.328850e+105
1.074358e+106
-2.567184e+106
5.904193e+106
-1.306395e+107
2.780270e+107
-5.689351e+107
1.119209e+108
-2.116074e+108
3.844570e+108
-6.710949e+108
1.125327e+109
-1.812471e+109
2.803572e+109
-4.164407e+109
5.939585e+109
-8.133639e+109
1.069326e+110
-1.349606e+110
1.635145e+110
-1.901709e+110
2.123053e+110
-2.275117e+110
2.340312e+110
-2.310883e+110
2.190424e+110
-1.993156e+110
1.741161e+110
-1.460318e+110
1.175972e+110
-9.093306e+109
6.752435e+109
-4.815637e+109
3.298723e+109
-2.170617e+109
1.372188e+109
-8.334646e+108
4.864675e+108
-2.728754e+108
1.471192e+108
-7.624632e+107
3.798930e+107
-1.819883e+107
8.383212e+106
-3.713676e+106
1.582206e+106
-6.483696e+105
2.555724e+105
-9.690887e+104
3.535029e+104
-1.240565e+104
4.188486e+103
-1.360581e+103
4.252757e+102
-1.279573e+102
3.710585e+101
-1.039698e+101
2.790465e+100
-5.743131e+99
-3.381612e+99
1.279362e+100
-2.970621e+100
6.253629e+100
-1.244929e+101
2.364261e+101
-4.294191e+101
7.465396e+101
-1.242547e+102
1.980054e+102
-3.020857e+102
4.412121e+102
-6.168828e+102
8.256032e+102
-1.057626e+103
1.296787e+103
-1.521835e+103
1.709315e+103
-1.837511e+103
1.890579e+103
3.985648e+103
-2.865332e+103
2.417782e+103
-2.343132e+103
1.760457e+103
-1.510838e+103
1.083954e+103
-8.232451e+102
5.573574e+102
-3.787678e+102
2.357015e+102
-1.320070e+102
2.968132e+101
1.435613e+102
-6.020000e+102
1.969495e+103
-6.051147e+103
1.787682e+104
-5.098813e+104
1.403255e+105
-3.725674e+105
9.535023e+105
-2.351463e+106
5.584727e+106
-1.276966e+107
2.809894e+107
-5.948702e+107
1.211277e+108
-2.371716e+108
4.464570e+108
-8.078295e+108
1.404770e+109
-2.347332e+109
3.768486e+109
-5.812087e+109
8.610386e+109
-1.225176e+110
1.674262e+110
-2.197193e+110
2.768900e+110
-3.350590e+110
3.893102e+110
-4.343317e+110
4.652592e+110
-4.785388e+110
4.726015e+110
-4.481674e+110
4.081029e+110
-3.568657e+110
2.996898e+110
-2.417138e+110
1.872526e+110
-1.393444e+110
9.961569e+109
-6.842061e+109
4.515583e+109
-2.863895e+109
1.745689e+109
-1.022809e+109
5.760912e+108
-3.119672e+108
1.624421e+108
-8.134110e+107
3.917347e+107
-1.814642e+107
8.086316e+106
-3.466669e+106
1.429926e+106
-5.675292e+105
2.167532e+105
-7.966558e+104
2.817890e+104
-9.592731e+103
3.142999e+103
-9.912165e+102
3.009769e+102
-8.805956e+101
2.484971e+101
-6.673602e+100
1.349067e+100
8.032171e+99
-2.940641e+100
6.722390e+100
-1.401750e+101
2.771564e+101
-5.234373e+101
9.461056e+101
-1.637601e+102
2.714805e+102
-4.310562e+102
6.555007e+102
-9.546175e+102
1.331297e+103
-1.777807e+103
2.273193e+103
-2.782997e+103
3.262127e+103
-3.660945e+103
3.933572e+103
-4.046561e+103
-8.205532e+103
5.887449e+103
-4.968277e+103
4.826890e+103
-3.628903e+103
3.121107e+103
-2.244138e+103
1.708122e+103
-1.160020e+103
7.902703e+102
-4.929089e+102
2.747642e+102
-5.458187e+101
-3.265953e+102
1.338133e+103
-4.339100e+103
1.323321e+104
-3.881864e+104
1.099548e+105
-3.005816e+105
7.928631e+105
-2.016428e+106
4.942753e+106
-1.167113e+107
2.653888e+107
-5.809000e+107
1.223655e+108
-2.479845e+108
4.834008e+108
-9.061663e+108
1.633244e+109
-2.829826e+109
4.712721e+109
-7.542688e+109
1.160038e+110
-1.714203e+110
2.433636e+110
-3.319070e+110
4.348249e+110
-5.471725e+110
6.613419e+110
-7.677243e+110
8.559581e+110
-9.165663e+110
9.426285e+110
-9.310846e+110
8.833265e+110
-8.049217e+110
7.045434e+110
-5.923929e+110
4.785094e+110
-3.713506e+110
2.769039e+110
-1.984116e+110
1.366289e+110
-9.042800e+109
5.753034e+109
-3.518644e+109
2.069140e+109
-1.170020e+109
6.362639e+108
-3.327933e+108
1.674389e+108
-8.104610e+107
3.774420e+107
-1.691439e+107
7.294466e+106
-3.027621e+106
1.209530e+106
-4.651262e+105
1.721838e+105
-6.136267e+104
2.105361e+104
-6.954704e+103
2.212038e+103
-6.775648e+102
1.999654e+102
-5.685409e+101
1.532060e+101
-3.083593e+100
-1.786680e+100
6.451028e+100
-1.457221e+101
3.013735e+101
-5.921960e+101
1.112633e+102
-2.001851e+102
3.450592e+102
-5.698745e+102
9.017390e+102
-1.367017e+103
1.985312e+103
-2.761958e+103
3.680551e+103
-4.697788e+103
5.743028e+103
-6.724224e+103
7.540310e+103
-8.098029e+103
8.329437e+103
1.626028e+104
-1.164456e+104
9.827162e+103
-9.570303e+103
7.199289e+103
-6.204603e+103
4.470457e+103
-3.409698e+103
2.322364e+103
-1.585764e+103
9.911166e+102
-5.496730e+102
9.430884e+101
7.102209e+102
-2.849889e+103
9.164468e+103
-2.775437e+104
8.087148e+104
-2.275767e+105
6.181821e+105
-1.620599e+106
4.097115e+106
-9.985723e+106
2.345002e+107
-5.304422e+107
1.155293e+108
-2.422117e+108
4.886733e+108
-9.485750e+108
1.771152e+109
-3.180501e+109
5.491789e+109
-9.116925e+109
1.454916e+110
-2.231678e+110
3.289888e+110
-4.660643e+110
6.344385e+110
-8.298153e+110
1.042789e+111
-1.258966e+111
1.460224e+111
-1.627060e+111
1.741654e+111
-1.791000e+111
1.769340e+111
-1.679269e+111
1.531227e+111
-1.341498e+111
1.129272e+111
-9.134717e+110
7.100919e+110
-5.305120e+110
3.809596e+110
-2.629726e+110
1.745168e+110
-1.113547e+110
6.832437e+109
-4.031725e+109
2.288270e+109
-1.249333e+109
6.562307e+108
-3.316612e+108
1.613035e+108
-7.550112e+107
3.401502e+107
-1.475166e+107
6.158932e+106
-2.475729e+106
9.582270e+105
-3.571348e+105
1.281801e+105
-4.430534e+104
1.474890e+104
-4.728895e+103
1.460543e+103
-4.346419e+102
1.245246e+102
-3.373050e+101
6.822755e+100
3.747835e+100
-1.353023e+101
3.028713e+101
-6.219487e+101
1.215251e+102
-2.272258e+102
4.070669e+102
-6.989177e+102
1.150166e+103
-1.814064e+103
2.742046e+103
-3.971877e+103
5.512975e+103
-7.331940e+103
9.342679e+103
-1.140579e+104
1.334034e+104
-1.494817e+104
1.604670e+104
-1.650300e+104
-3.101515e+104
2.217057e+104
-1.871109e+104
1.826350e+104
-1.374616e+104
1.186987e+104
-8.568965e+103
6.548330e+103
-4.472362e+103
3.060354e+103
-1.916243e+103
1.056988e+103
-1.520116e+102
-1.476754e+103
5.815591e+103
-1.855608e+104
5.582729e+104
-1.616472e+105
4.520899e+105
-1.220719e+106
3.181674e+106
-7.998880e+106
1.939068e+107
-4.530204e+107
1.019702e+108
-2.210503e+108
4.613833e+108
-9.269558e+108
1.792220e+109
-3.333966e+109
5.966132e+109
-1.026856e+110
1.699607e+110
-2.704883e+110
4.138644e+110
-6.087361e+110
8.606377e+110
-1.169487e+111
1.527297e+111
-1.916808e+111
2.311750e+111
-2.679138e+111
2.983538e+111
-3.192612e+111
3.282764e+111
-3.243535e+111
3.079601e+111
-2.809853e+111
2.463812e+111
-2.076311e+111
1.681778e+111
-1.309397e+111
9.800278e+110
-7.051996e+110
4.879073e+110
-3.246098e+110
2.076993e+110
-1.278229e+110
7.567215e+109
-4.309932e+109
2.361924e+109
-1.245594e+109
6.322011e+108
-3.088552e+108
1.452533e+108
-6.576845e+107
2.867320e+107
-1.203776e+107
4.867056e+106
-1.895290e+106
7.108966e+105
-2.568549e+105
8.940157e+104
-2.997789e+104
9.684600e+103
-3.014601e+103
9.042512e+102
-2.610332e+102
7.114945e+101
-1.454668e+101
-7.447598e+100
2.715743e+101
-6.037395e+101
1.232144e+102
-2.395199e+102
4.458498e+102
-7.955101e+102
1.360848e+103
-2.231962e+103
3.509577e+103
-5.290327e+103
7.644299e+103
-1.058741e+104
1.405438e+104
-1.788051e+104
2.180096e+104
-2.547330e+104
2.852331e+104
-3.060673e+104
3.147305e+104
5.693707e+104
-4.062954e+104
3.429047e+104
-3.354247e+104
2.525832e+104
-2.185034e+104
1.580277e+104
-1.209812e+104
8.284018e+103
-5.679782e+103
3.562106e+103
-1.953659e+103
2.258227e+102
2.936497e+103
-1.137046e+104
3.601738e+104
-1.076927e+105
3.099805e+105
-8.619477e+105
2.314384e+106
-5.999481e+106
1.500411e+107
-3.618956e+107
8.414138e+107
-1.885212e+108
4.068839e+108
-8.457282e+108
1.692453e+109
-3.260143e+109
6.043577e+109
-1.077985e+110
1.849764e+110
-3.053103e+110
4.846485e+110
-7.398111e+110
1.085863e+111
-1.532315e+111
2.078753e+111
-2.710871e+111
3.398129e+111
-4.094260e+111
4.741334e+111
-5.277221e+111
5.645277e+111
-5.804186e+111
5.735612e+111
-5.447684e+111
4.973410e+111
-4.364437e+111
3.681797e+111
-2.985931e+111
2.328212e+111
-1.745528e+111
1.258447e+111
-8.725523e+110
5.818951e+110
-3.732886e+110
2.303793e+110
-1.368026e+110
7.817202e+109
-4.299021e+109
2.275641e+109
-1.159599e+109
5.688998e+108
-2.687443e+108
1.222556e+108
-5.356392e+107
2.260454e+107
-9.189272e+106
3.598886e+106
-1.357976e+106
4.937246e+105
-1.729712e+105
5.839611e+104
-1.899944e+104
5.957676e+103
-1.800496e+103
5.235853e+102
-1.436808e+102
2.978719e+101
1.406377e+101
-5.219873e+101
1.154411e+102
-2.343246e+102
4.533791e+102
-8.404375e+102
1.493926e+103
-2.546832e+103
4.164027e+103
-6.528919e+103
9.816358e+103
-1.415166e+104
1.956054e+104
-2.592049e+104
3.292839e+104
-4.009993e+104
4.681108e+104
-5.238135e+104
5.618554e+104
-5.776897e+104
-1.005851e+105
7.165759e+104
-6.047784e+104
5.927924e+104
-4.465849e+104
3.869866e+104
-2.803573e+104
2.149928e+104
-1.475670e+104
1.013602e+104
-6.365746e+103
3.470787e+103
-3.024027e+102
-5.584846e+103
2.129877e+104
-6.701225e+104
1.992136e+105
-5.702466e+105
1.577119e+106
-4.212534e+106
1.086467e+107
-2.703877e+107
6.491053e+107
-1.502391e+108
3.351680e+108
-7.204307e+108
1.491637e+109
-2.974074e+109
5.709094e+109
-1.054904e+110
1.875916e+110
-3.209899e+110
5.284254e+110
-8.368142e+110
1.274604e+111
-1.867127e+111
2.630166e+111
-3.562593e+111
4.639718e+111
-5.809430e+111
6.993122e+111
-8.092621e+111
9.002803e+111
-9.627915e+111
9.898138e+111
-9.782449e+111
9.294496e+111
-8.489941e+111
7.455993e+111
-6.295848e+111
5.111891e+111
-3.991372e+111
2.997194e+111
-2.164720e+111
1.503931e+111
-1.005175e+111
6.463886e+110
-3.999779e+110
2.381894e+110
-1.365237e+110
7.532652e+109
-4.001270e+109
2.046505e+109
-1.007970e+109
4.781401e+108
-2.184677e+108
9.615974e+107
-4.077751e+107
1.666149e+107
-6.560153e+106
2.489194e+106
-9.102954e+105
3.208593e+105
-1.090142e+105
3.570366e+104
-1.127276e+104
3.430884e+103
-1.004741e+103
2.776333e+102
-5.844789e+101
-2.529249e+101
9.611989e+101
-2.117484e+102
4.277621e+102
-8.241107e+102
1.521812e+103
-2.695662e+103
4.580846e+103
-7.467701e+103
1.167772e+104
-1.751554e+104
2.519702e+104
-3.476187e+104
4.598930e+104
-5.834266e+104
7.096953e+104
-8.277507e+104
9.256785e+104
-9.925451e+104
1.020404e+105
1.709744e+105
-1.216133e+105
1.026388e+105
-1.007975e+105
7.596685e+104
-6.593308e+104
4.784191e+104
-3.674464e+104
2.527710e+104
-1.739112e+104
1.093536e+104
-5.926481e+103
3.478327e+102
1.015990e+104
-3.822031e+104
1.195032e+105
-3.533557e+105
1.006282e+106
-2.769117e+106
7.360465e+106
-1.889421e+107
4.680839e+107
-1.118798e+108
2.578695e+108
-5.729823e+108
1.226921e+109
-2.531150e+109
5.029478e+109
-9.623667e+109
1.772864e+110
-3.143769e+110
5.365252e+110
-8.811100e+110
1.392225e+111
-2.116289e+111
3.094417e+111
-4.351899e+111
5.886235e+111
-7.656388e+111
9.576603e+111
-1.151806e+112
1.332025e+112
-1.481154e+112
1.583574e+112
-1.627898e+112
1.609064e+112
-1.529281e+112
1.397610e+112
-1.228261e+112
1.038071e+112
-8.437741e+111
6.596635e+111
-4.960835e+111
3.588934e+111
-2.498043e+111
1.673041e+111
-1.078291e+111
6.688692e+110
-3.993706e+110
2.295600e+110
-1.270450e+110
6.770430e+109
-3.474789e+109
1.717709e+109
-8.179632e+108
3.752615e+108
-1.658828e+108
7.066175e+107
-2.900877e+107
1.147834e+107
-4.377980e+106
1.609716e+106
-5.706085e+105
1.950158e+105
-6.426439e+104
2.042031e+104
-6.255999e+103
1.844308e+103
-5.131241e+102
1.097295e+102
4.339061e+101
-1.696223e+102
3.725970e+102
-7.495232e+102
1.438369e+103
-2.646709e+103
4.673080e+103
-7.917585e+103
1.287221e+104
-2.007935e+104
3.005012e+104
-4.314266e+104
5.941547e+104
-7.848653e+104
9.944186e+104
-1.208376e+105
1.408249e+105
-1.573953e+105
1.687078e+105
-1.734253e+105
-2.795949e+105
1.985830e+105
-1.675965e+105
1.648845e+105
-1.243111e+105
1.080502e+105
-7.851789e+104
6.039132e+104
-4.162957e+104
2.868536e+104
-1.805568e+104
9.726309e+103
-2.972830e+102
-1.768025e+104
6.570013e+104
-2.042461e+105
6.009396e+105
-1.703221e+106
4.665274e+106
-1.234485e+107
3.155113e+107
-7.783661e+107
1.852917e+108
-4.254245e+108
9.417971e+108
-2.009575e+109
4.131949e+109
-8.184439e+109
1.561403e+110
-2.868388e+110
5.073191e+110
-8.637114e+110
1.415260e+111
-2.231631e+111
3.385904e+111
-4.942470e+111
6.940462e+111
-9.374983e+111
1.218032e+112
-1.522041e+112
1.829164e+112
-2.114084e+112
2.349766e+112
-2.511628e+112
2.581752e+112
-2.552164e+112
2.426322e+112
-2.218454e+112
1.950904e+112
-1.650179e+112
1.342660e+112
-1.050936e+112
7.914069e+111
-5.734291e+111
3.998172e+111
-2.682832e+111
1.732713e+111
-1.077245e+111
6.447793e+110
-3.715973e+110
2.062317e+110
-1.102343e+110
5.675617e+109
-2.815145e+109
1.345350e+109
-6.195414e+108
2.749529e+108
-1.176114e+108
4.849435e+107
-1.927651e+107
7.387593e+106
-2.729939e+106
9.727763e+105
-3.342830e+105
1.107859e+105
-3.541148e+104
1.091519e+104
-3.237977e+103
9.068325e+102
-1.969070e+102
-7.110097e+101
2.869199e+102
-6.289468e+102
1.260469e+103
-2.410296e+103
4.420705e+103
-7.781993e+103
1.314887e+104
-2.132348e+104
3.318655e+104
-4.956364e+104
7.102722e+104
-9.765938e+104
1.288254e+105
-1.630282e+105
1.979144e+105
-2.304787e+105
2.574623e+105
-2.758811e+105
2.835685e+105
4.398174e+105
-3.119549e+105
2.632711e+105
-2.594411e+105
1.956625e+105
-1.702978e+105
1.239193e+105
-9.543613e+104
6.591151e+104
-4.547955e+104
2.865164e+104
-1.534185e+104
4.689502e+101
2.943210e+104
-1.081779e+105
3.345356e+105
-9.798066e+105
2.764914e+106
-7.541135e+106
1.987237e+107
-5.058701e+107
1.243172e+108
-2.948430e+108
6.745481e+108
-1.488239e+109
3.165306e+109
-6.488351e+109
1.281472e+110
-2.438086e+110
4.467444e+110
-7.882480e+110
1.339011e+111
-2.189569e+111
3.446076e+111
-5.219511e+111
7.607197e+111
-1.066761e+112
1.439194e+112
-1.867884e+112
2.332020e+112
-2.800561e+112
3.234989e+112
-3.594223e+112
3.840935e+112
-3.947927e+112
3.903079e+112
-3.711614e+112
3.395093e+112
-2.987413e+112
2.528830e+112
-2.059470e+112
1.613755e+112
-1.216759e+112
8.828754e+111
-6.165490e+111
4.144365e+111
-2.681771e+111
1.670753e+111
-1.002269e+111
5.790213e+110
-3.221810e+110
1.726863e+110
-8.917149e+109
4.436713e+109
-2.127258e+109
9.830086e+108
-4.378510e+108
1.880090e+108
-7.783291e+107
3.106896e+107
-1.195948e+107
4.439766e+106
-1.589669e+106
5.490166e+105
-1.829050e+105
5.878219e+104
-1.822119e+104
5.436622e+103
-1.532117e+103
3.375201e+102
1.114049e+102
-4.652728e+102
1.018427e+103
-2.034259e+103
3.877400e+103
-7.090358e+103
1.244737e+104
-2.097885e+104
3.394294e+104
-5.271598e+104
7.858162e+104
-1.124213e+105
1.543448e+105
-2.033392e+105
2.570462e+105
-3.117754e+105
3.628257e+105
-4.051075e+105
4.339648e+105
-4.460183e+105
-6.654370e+105
4.713875e+105
-3.978096e+105
3.926217e+105
-2.961871e+105
2.581088e+105
-1.880479e+105
1.449969e+105
-1.003126e+105
6.930222e+104
-4.369175e+104
2.325868e+104
5.467307e+102
-4.686985e+104
1.705998e+105
-5.250616e+105
1.531462e+106
-4.304445e+106
1.169460e+107
-3.070166e+107
7.786922e+107
-1.906909e+108
4.507333e+108
-1.027861e+109
2.260734e+109
-4.794165e+109
9.799806e+109
-1.930388e+110
3.663558e+110
-6.697285e+110
1.179111e+111
-1.998919e+111
3.262538e+111
-5.125948e+111
7.751720e+111
-1.128179e+112
1.580053e+112
-2.129321e+112
2.760926e+112
-3.444178e+112
4.133449e+112
-4.772214e+112
5.300258e+112
-5.662902e+112
5.820316e+112
-5.754733e+112
5.473764e+112
-5.008936e+112
4.409858e+112
-3.735506e+112
3.044743e+112
-2.388159e+112
1.802710e+112
-1.309729e+112
9.159583e+111
-6.166769e+111
3.997410e+111
-2.495126e+111
1.499873e+111
-8.684026e+110
4.843398e+110
-2.602553e+110
1.347497e+110
-6.723448e+109
3.233329e+109
-1.498846e+109
6.698355e+108
-2.886261e+108
1.199250e+108
-4.805502e+107
1.857237e+107
-6.923684e+106
2.489930e+106
-8.638768e+105
2.891759e+105
-9.339784e+104
2.910057e+104
-8.728891e+103
2.474248e+103
-5.524023e+102
-1.670739e+102
7.233753e+102
-1.581857e+103
3.150423e+103
-5.987366e+103
1.091913e+104
-1.912116e+104
3.215303e+104
-5.191308e+104
8.047089e+104
-1.197479e+105
1.710514e+105
-2.345207e+105
3.086039e+105
-3.897284e+105
4.723268e+105
-5.493231e+105
6.130672e+105
-6.565672e+105
6.747501e+105
9.682376e+105
-6.850962e+105
5.781398e+105
-5.713954e+105
4.311586e+105
-3.761475e+105
2.743522e+105
-2.117697e+105
1.467360e+105
-1.014864e+105
6.402147e+104
-3.389007e+104
-1.653320e+103
7.140109e+104
-2.576642e+105
7.896297e+105
-2.294531e+106
6.426043e+106
-1.739761e+107
4.551855e+107
-1.150697e+108
2.808958e+108
-6.619235e+108
1.505051e+109
-3.301049e+109
6.981676e+109
-1.423532e+110
2.797419e+110
-5.297112e+110
9.663144e+110
-1.697924e+111
2.873181e+111
-4.681528e+111
7.343970e+111
-1.109020e+112
1.611995e+112
-2.255078e+112
3.035952e+112
-3.933069e+112
4.902810e+112
-5.880493e+112
6.786126e+112
-7.534578e+112
8.048592e+112
-8.271897e+112
8.179380e+112
-7.781739e+112
7.123447e+112
-6.274544e+112
5.318371e+112
-4.338206e+112
3.405742e+112
-2.573490e+112
1.871910e+112
-1.310826e+112
8.837963e+111
-5.737964e+111
3.587698e+111
-2.160638e+111
1.253468e+111
-7.005959e+110
3.773146e+110
-1.958304e+110
9.796154e+109
-4.723759e+109
2.196005e+109
-9.843462e+108
4.254857e+108
-1.773765e+108
7.132317e+107
-2.766526e+107
1.035266e+107
-3.737851e+106
1.302213e+106
-4.377882e+105
1.420323e+105
-4.446045e+104
1.340066e+104
-3.818758e+103
8.629960e+102
2.400473e+102
-1.078334e+103
2.356683e+103
-4.681459e+103
8.873848e+103
-1.614379e+104
2.820681e+104
-4.733271e+104
7.627666e+104
-1.180329e+105
1.753698e+105
-2.501550e+105
3.425560e+105
-4.502897e+105
5.681521e+105
-6.880641e+105
7.997780e+105
-8.922288e+105
9.553119e+105
-9.816980e+105
-1.354721e+106
9.575607e+105
-8.080365e+105
7.996126e+105
-6.034963e+105
5.270226e+105
-3.847808e+105
2.972921e+105
-2.062815e+105
1.428089e+105
-9.013477e+104
4.746187e+104
3.437735e+103
-1.040518e+105
3.726777e+105
-1.137756e+106
3.295121e+106
-9.198745e+106
2.482655e+107
-6.475853e+107
1.632270e+108
-3.973234e+108
9.337307e+108
-2.117531e+109
4.632824e+109
-9.775100e+109
1.988608e+110
-3.899536e+110
7.369224e+110
-1.341782e+111
2.353515e+111
-3.976037e+111
6.468712e+111
-1.013345e+112
1.528326e+112
-2.218932e+112
3.100977e+112
-4.171018e+112
5.399358e+112
-6.726232e+112
8.063244e+112
-9.301223e+112
1.032409e+113
-1.102657e+113
1.133198e+113
-1.120609e+113
1.066340e+113
-9.764430e+112
8.604571e+112
-7.297405e+112
5.956558e+112
-4.679989e+112
3.539615e+112
-2.577339e+112
1.806915e+112
-1.219842e+112
7.930879e+111
-4.966435e+111
2.995917e+111
-1.741141e+111
9.750249e+110
-5.261794e+110
2.736830e+110
-1.372197e+110
6.632825e+109
-3.091373e+109
1.389413e+109
-6.022725e+108
2.518193e+108
-1.015710e+108
3.952595e+107
-1.484130e+107
5.377501e+106
-1.880380e+106
6.346017e+105
-2.067126e+105
6.497762e+104
-1.966961e+104
5.632224e+103
-1.286710e+103
-3.307319e+102
1.541311e+103
-3.367480e+103
6.674294e+103
-1.262197e+104
2.291272e+104
-3.995323e+104
6.691988e+104
-1.076585e+105
1.663371e+105
-2.467945e+105
3.516006e+105
-4.809463e+105
6.316057e+105
-7.962913e+105
9.637261e+105
-1.119632e+106
1.248611e+106
-1.336611e+106
1.373441e+106
1.822496e+106
-1.287003e+106
1.085995e+106
-1.075871e+106
8.121507e+105
-7.098622e+105
5.187296e+105
-4.011214e+105
2.786668e+105
-1.930858e+105
1.219178e+105
-6.388649e+104
-6.011810e+103
1.450506e+105
-5.161626e+105
1.570563e+106
-4.535310e+106
1.262529e+107
-3.398093e+107
8.840089e+107
-2.222428e+108
5.396296e+108
-1.265115e+109
2.862455e+109
-6.248840e+109
1.315726e+110
-2.671346e+110
5.228509e+110
-9.863194e+110
1.792901e+111
-3.139908e+111
5.296924e+111
-8.606207e+111
1.346541e+112
-2.028585e+112
2.942278e+112
-4.108164e+112
5.521380e+112
-7.142511e+112
8.892639e+112
-1.065529e+113
1.228680e+113
-1.363454e+113
1.456012e+113
-1.496281e+113
1.479756e+113
-1.408338e+113
1.289971e+113
-1.137182e+113
9.649024e+112
-7.880807e+112
6.196221e+112
-4.690198e+112
3.418270e+112
-2.398936e+112
1.621352e+112
-1.055443e+112
6.618274e+111
-3.998194e+111
2.327285e+111
-1.305452e+111
7.057596e+110
-3.677878e+110
1.847745e+110
-8.950551e+109
4.180989e+109
-1.883592e+109
8.185180e+108
-3.431288e+108
1.387793e+108
-5.416013e+107
2.039709e+107
-7.413665e+106
2.600840e+106
-8.807349e+105
2.879042e+105
-9.083277e+104
2.760178e+104
-7.937346e+103
1.830703e+103
4.373826e+102
-2.112425e+103
4.614787e+103
-9.128615e+103
1.722829e+104
-3.121481e+104
5.433339e+104
-9.085761e+104
1.459503e+105
-2.251926e+105
3.337084e+105
-4.749032e+105
6.489824e+105
-8.515694e+105
1.072853e+106
-1.297696e+106
1.506961e+106
-1.680031e+106
1.798103e+106
-1.847545e+106
-2.357178e+106
1.663233e+106
-1.403412e+106
1.391679e+106
-1.050715e+106
9.190819e+105
-6.721298e+105
5.201195e+105
-3.617210e+105
2.508171e+105
-1.584237e+105
8.265579e+104
9.378098e+103
-1.934212e+105
6.845184e+105
-2.076891e+106
5.982357e+106
-1.661319e+107
4.460855e+107
-1.157815e+108
2.904290e+108
-7.036741e+108
1.646282e+109
-3.717481e+109
8.099973e+109
-1.702405e+110
3.450491e+110
-6.742522e+110
1.269979e+111
-2.305211e+111
4.031696e+111
-6.792850e+111
1.102398e+112
-1.723002e+112
2.593223e+112
-3.757953e+112
5.242970e+112
-7.041736e+112
9.103870e+112
-1.132894e+113
1.356900e+113
-1.564176e+113
1.735369e+113
-1.852940e+113
1.904119e+113
-1.883199e+113
1.792579e+113
-1.642316e+113
1.448279e+113
-1.229394e+113
1.004625e+113
-7.903617e+112
5.986817e+112
-4.366739e+112
3.067298e+112
-2.075112e+112
1.352279e+112
-8.489549e+111
5.135147e+111
-2.993154e+111
1.681404e+111
-9.104201e+110
4.752240e+110
-2.391673e+110
1.160678e+110
-5.432337e+109
2.452362e+109
-1.067976e+109
4.487163e+108
-1.819147e+108
7.117031e+107
-2.687276e+107
9.793821e+106
-3.445554e+106
1.170225e+106
-3.837106e+105
1.214460e+105
-3.702720e+104
1.068743e+104
-2.485332e+103
-5.557486e+102
2.776061e+103
-6.064774e+103
1.197694e+104
-2.256423e+104
4.081506e+104
-7.093504e+104
1.184518e+105
-1.900303e+105
2.928599e+105
-4.335217e+105
6.163627e+105
-8.415914e+105
1.103506e+106
-1.389410e+106
1.679760e+106
-1.949886e+106
2.173233e+106
-2.325594e+106
2.389425e+106
2.930837e+106
-2.066581e+106
1.743692e+106
-1.730542e+106
1.306729e+106
-1.143762e+106
8.369810e+105
-6.480847e+105
4.511204e+105
-3.129994e+105
1.977540e+105
-1.027889e+105
-1.338224e+104
2.467127e+105
-8.691670e+105
2.630858e+106
-7.562078e+106
2.095745e+107
-5.616156e+107
1.454854e+108
-3.642531e+108
8.809394e+108
-2.057401e+109
4.638040e+109
-1.008956e+110
2.117325e+110
-4.285238e+110
8.362188e+110
-1.573011e+111
2.851795e+111
-4.981981e+111
8.385092e+111
-1.359473e+112
2.122894e+112
-3.192476e+112
4.622948e+112
-6.445537e+112
8.651870e+112
-1.117993e+113
1.390655e+113
-1.665057e+113
1.918899e+113
-2.128519e+113
2.272482e+113
-2.335181e+113
2.309638e+113
-2.198777e+113
2.014877e+113
-1.777326e+113
1.509256e+113
-1.233862e+113
9.712103e+112
-7.361089e+112
5.372743e+112
-3.776779e+112
2.557221e+112
-1.667970e+112
1.048181e+112
-6.347010e+111
3.703776e+111
-2.083158e+111
1.129437e+111
-5.903696e+110
2.975563e+110
-1.446297e+110
6.780283e+109
-3.066188e+109
1.337725e+109
-5.631283e+108
2.287563e+108
-8.968387e+107
3.393747e+107
-1.239690e+107
4.371771e+106
-1.488501e+106
4.893396e+105
-1.552966e+105
4.748123e+104
-1.374814e+104
3.219252e+103
6.791353e+102
-3.498103e+103
7.643093e+103
-1.507295e+104
2.835500e+104
-5.121801e+104
8.889968e+104
-1.482730e+105
2.376116e+105
-3.658236e+105
5.410431e+105
-7.686146e+105
1.048737e+106
-1.374279e+106
1.729445e+106
-2.089975e+106
2.425281e+106
-2.702459e+106
2.891532e+106
-2.970774e+106
-3.502950e+106
2.468583e+106
-2.082824e+106
2.068517e+106
-1.562100e+106
1.368010e+106
-1.001611e+106
7.759478e+105
-5.405208e+105
3.752165e+105
-2.371158e+105
1.228674e+105
1.769441e+104
-3.010027e+105
1.056618e+106
-3.192149e+106
9.159894e+106
-2.534398e+107
6.780724e+107
-1.753777e+108
4.384250e+108
-1.058758e+109
2.469171e+109
-5.558698e+109
1.207654e+110
-2.531142e+110
5.116692e+110
-9.973494e+110
1.874132e+111
-3.394341e+111
5.924292e+111
-9.962482e+111
1.613926e+112
-2.518393e+112
3.784712e+112
-5.477248e+112
7.632535e+112
-1.024033e+113
1.322713e+113
-1.644736e+113
1.968721e+113
-2.268368e+113
2.515782e+113
-2.685701e+113
2.759737e+113
-2.729659e+113
2.598907e+113
-2.381941e+113
2.101601e+113
-1.785148e+113
1.459937e+113
-1.149647e+113
8.717761e+112
-6.366465e+112
4.478073e+112
-3.034123e+112
1.980508e+112
-1.245593e+112
7.548990e+111
-4.409332e+111
2.482490e+111
-1.347390e+111
7.051000e+110
-3.558122e+110
1.731665e+110
-8.129043e+109
3.681343e+109
-1.608502e+109
6.781740e+108
-2.759422e+108
1.083688e+108
-4.108162e+107
1.503468e+107
-5.312353e+106
1.812439e+106
-5.970990e+105
1.899140e+105
-5.819930e+104
1.689516e+104
-3.978422e+103
-7.989446e+102
4.226589e+103
-9.236197e+103
1.819426e+104
-3.418546e+104
6.167915e+104
-1.069438e+105
1.781941e+105
-2.853052e+105
4.388940e+105
-6.486349e+105
9.208564e+105
-1.255738e+106
1.644713e+106
-2.068898e+106
2.499334e+106
-2.899545e+106
3.230318e+106
-3.455938e+106
3.550529e+106
4.024332e+106
-2.834750e+106
2.391713e+106
-2.376542e+106
1.794861e+106
-1.572498e+106
1.151804e+106
-8.926498e+105
6.221707e+105
-4.320655e+105
2.730905e+105
-1.411732e+105
-2.183631e+104
3.512604e+105
-1.229728e+106
3.709803e+106
-1.063165e+107
2.937938e+107
-7.850727e+107
2.028084e+108
-5.064042e+108
1.221533e+109
-2.845656e+109
6.399497e+109
-1.388916e+110
2.908242e+110
-5.873605e+110
1.143893e+111
-2.147741e+111
3.886896e+111
-6.779086e+111
1.139230e+112
-1.844415e+112
2.876412e+112
-4.320512e+112
6.249732e+112
-8.705350e+112
1.167540e+113
-1.507597e+113
1.874130e+113
-2.242813e+113
2.583744e+113
-2.865219e+113
3.058531e+113
-3.142785e+113
3.108630e+113
-2.959965e+113
2.713210e+113
-2.394313e+113
2.034252e+113
-1.664125e+113
1.310869e+113
-9.944071e+112
7.265136e+112
-5.112631e+112
3.465900e+112
-2.263658e+112